                         Program Version 4.0.0.2 - RELEASE -
|  1> # 5MnO+
|  2>
|  3> ! B3LYP
|  4> ! 6-311G
|  5> ! TightOpt
|  6>
|  7>
|  8>
|  9>
| 10>
| 11> %coords
| 12> 	CTyp = xyz
| 13> 	Charge = 1
| 14> 	Mult = 5
| 15> 	coords
| 16>   Mn  0.00080155127766      0.00000000000000      0.00000000000000
| 17>   O   1.72929768733234      0.00000000000000      0.00000000000000
| 18>
| 19> 	end
| 20> end
| 21>
| 22>                          ****END OF INPUT****
 Total Charge           Charge          ....    1
 Multiplicity           Mult            ....    5
 Number of Electrons    NEL             ....   32
FINAL SINGLE POINT ENERGY     -1225.720998511003
FINAL SINGLE POINT ENERGY     -1225.721043963198   (SCF not fully converged!)
FINAL SINGLE POINT ENERGY     -1225.721203994999
FINAL SINGLE POINT ENERGY     -1225.721204517467   (SCF not fully converged!)
                    ***********************HURRAY********************

CARTESIAN COORDINATES (ANGSTROEM)
---------------------------------
  Mn    -0.011787    0.000000    0.000000
  O      1.741886    0.000000    0.000000

 Multiplicity           Mult            ....    5
 Number of Electrons    NEL             ....   32
 Basis Dimension        Dim             ....   52

ORBITAL ENERGIES
----------------
                 SPIN UP ORBITALS
  NO   OCC          E(Eh)            E(eV)
   0   1.0000    -235.773313     -6415.7180
   1   1.0000     -27.631003      -751.8778
   2   1.0000     -23.717287      -645.3802
   3   1.0000     -23.713960      -645.2897
   4   1.0000     -23.709635      -645.1720
   5   1.0000     -19.372847      -527.1620
   6   1.0000      -3.579049       -97.3909
   7   1.0000      -2.451735       -66.7151
   8   1.0000      -2.445998       -66.5590
   9   1.0000      -2.443517       -66.4915
  10   1.0000      -1.112920       -30.2841
  11   1.0000      -0.655678       -17.8419
  12   1.0000      -0.650743       -17.7076
  13   1.0000      -0.645371       -17.5614
  14   1.0000      -0.642635       -17.4870
  15   1.0000      -0.641884       -17.4665
  16   1.0000      -0.512362       -13.9421
  17   1.0000      -0.508722       -13.8430
  18   0.0000      -0.372261       -10.1297
  19   0.0000      -0.334750        -9.1090
  20   0.0000      -0.074936        -2.0391
  21   0.0000       0.398192        10.8354
  22   0.0000       0.461644        12.5620

                 SPIN DOWN ORBITALS
  NO   OCC          E(Eh)            E(eV)
   0   1.0000    -235.772984     -6415.7091
   1   1.0000     -27.549961      -749.6725
   2   1.0000     -23.649368      -643.5320
   3   1.0000     -23.647511      -643.4815
   4   1.0000     -23.644932      -643.4113
   5   1.0000     -19.392715      -527.7026
   6   1.0000      -3.372161       -91.7612
   7   1.0000      -2.233360       -60.7728
   8   1.0000      -2.231118       -60.7118
   9   1.0000      -2.223116       -60.4941
  10   1.0000      -1.170432       -31.8491
  11   1.0000      -0.618385       -16.8271
  12   1.0000      -0.594608       -16.1801
  13   1.0000      -0.552208       -15.0263
  14   0.0000      -0.358553        -9.7567
  15   0.0000      -0.334296        -9.0967
  16   0.0000      -0.334146        -9.0926
  17   0.0000      -0.325437        -8.8556
  18   0.0000      -0.316418        -8.6102

MULLIKEN ATOMIC CHARGES AND SPIN POPULATIONS
--------------------------------------------
   0 Mn:    1.338559    4.811048
   1 O :   -0.338559   -0.811048
Sum of atomic charges         :    1.0000000

LOEWDIN ATOMIC CHARGES AND SPIN POPULATIONS
-------------------------------------------
   0 Mn:    1.308855    4.777140
   1 O :   -0.308855   -0.777140

  Mayer bond orders larger than 0.1
B(  0-Mn,  1-O ) :   1.2635

FINAL SINGLE POINT ENERGY     -1225.721204938382

DIPOLE MOMENT
-------------
                                X             Y             Z
Electronic contribution:     -3.99577      -0.00000      -0.00000
Nuclear contribution   :      1.84737       0.00000       0.00000
                        -----------------------------------------
Total Dipole Moment    :     -2.14840      -0.00000      -0.00000
                        -----------------------------------------
Magnitude (a.u.)       :      2.14840
Magnitude (Debye)      :      5.46080

                             ****ORCA TERMINATED NORMALLY****
TOTAL RUN TIME: 0 days 0 hours 2 minutes 2 seconds 783 msec
